    -----------------------------------------------------------------------
          PSI4: An Open-Source Ab Initio Electronic Structure Package
                              PSI 4.0 Driver

               Git: Rev {master} fdb9578f5cb0074d552ae8944aabc354df928483

    J. M. Turney, A. C. Simmonett, R. M. Parrish, E. G. Hohenstein,
    F. A. Evangelista, J. T. Fermann, B. J. Mintz, L. A. Burns, J. J. Wilke,
    M. L. Abrams, N. J. Russ, M. L. Leininger, C. L. Janssen, E. T. Seidl,
    W. D. Allen, H. F. Schaefer, R. A. King, E. F. Valeev, C. D. Sherrill,
    and T. D. Crawford, WIREs Comput. Mol. Sci. 2, 556-565 (2012)
    (doi: 10.1002/wcms.93)

                         Additional Contributions by
    A. E. DePrince, M. Saitow, U. Bozkaya, A. Yu. Sokolov
    -----------------------------------------------------------------------

    Process ID:  43654
    PSI4DATADIR: /Users/jeffschriber/Source/psi4/lib
    Memory level set to 256.000 MB

  ==> Input File <==

--------------------------------------------------------------------------

# PYTHONPATH must include directory above plugin directory.
#     Define either externally or here, then import plugin.
import myscf

molecule {
O
H 1 R
H 1 R 2 A

R = .9
A = 104.5
}

set {
  basis sto-3g
}

set myscf {
  print 1
}

energy('myscf')

myscf.exampleFN()

--------------------------------------------------------------------------

*** tstart() called on Jeffs-MacBook-Pro.local
*** at Mon Mar 23 18:29:01 2015

/Users/jeffschriber/programming_tutorials/myscf/myscf.so loaded.

*** tstart() called on Jeffs-MacBook-Pro.local
*** at Mon Mar 23 18:29:01 2015

    There are an even number of electrons - assuming singlet.
    Specify the multiplicity with the MULTP option in the
    input if this is incorrect


         ---------------------------------------------------------
                                   SCF
            by Justin Turney, Rob Parrish, and Andy Simmonett
                              RHF Reference
                        1 Threads,    256 MiB Core
         ---------------------------------------------------------

  ==> Geometry <==

    Molecular point group: c2v
    Full point group: C2v

    Geometry (in Angstrom), charge = 0, multiplicity = 1:

       Center              X                  Y                   Z       
    ------------   -----------------  -----------------  -----------------
           O          0.000000000000     0.000000000000    -0.061664597379
           H          0.000000000000    -0.711620616369     0.489330954652
           H          0.000000000000     0.711620616369     0.489330954652

  Running in c2v symmetry.

  Rotational constants: A =     31.01920  B =     16.51522  C =     10.77722 [cm^-1]
  Rotational constants: A = 929932.18007  B = 495113.78280  C = 323092.90466 [MHz]
  Nuclear repulsion =    9.779406144413407

  Charge       = 0
  Multiplicity = 1
  Electrons    = 10
  Nalpha       = 5
  Nbeta        = 5

  ==> Algorithm <==

  SCF Algorithm Type is PK.
  DIIS enabled.
  MOM disabled.
  Fractional occupation disabled.
  Guess Type is CORE.
  Energy threshold   = 1.00e-08
  Density threshold  = 1.00e-08
  Integral threshold = 0.00e+00

  ==> Primary Basis <==

  Basis Set: STO-3G
    Number of shells: 5
    Number of basis function: 7
    Number of Cartesian functions: 7
    Spherical Harmonics?: true
    Max angular momentum: 1

  ==> Pre-Iterations <==

   -------------------------------------------------------
    Irrep   Nso     Nmo     Nalpha   Nbeta   Ndocc  Nsocc
   -------------------------------------------------------
     A1         4       4       0       0       0       0
     A2         0       0       0       0       0       0
     B1         1       1       0       0       0       0
     B2         2       2       0       0       0       0
   -------------------------------------------------------
    Total       7       7       5       5       5       0
   -------------------------------------------------------

  Starting with a DF guess...

 OEINTS: Overlap, kinetic, potential, dipole, and quadrupole integrals
         stored in file 35.

  ==> Integral Setup <==

  ==> DFJK: Density-Fitted J/K Matrices <==

    J tasked:                  Yes
    K tasked:                  Yes
    wK tasked:                  No
    OpenMP threads:              1
    Integrals threads:           1
    Memory (MB):               183
    Algorithm:                Core
    Integral Cache:           NONE
    Schwarz Cutoff:          1E-12
    Fitting Condition:       1E-12

   => Auxiliary Basis Set <=

  Basis Set: 
    Number of shells: 30
    Number of basis function: 84
    Number of Cartesian functions: 96
    Spherical Harmonics?: true
    Max angular momentum: 3

  Minimum eigenvalue in the overlap matrix is 3.0451397022E-01.
  Using Symmetric Orthogonalization.
  SCF Guess: Core (One-Electron) Hamiltonian.

  ==> Iterations <==

                           Total Energy        Delta E     RMS |[F,P]|

   @DF-RHF iter   1:   -73.19738773471491   -7.31974e+01   2.46158e-01 
   @DF-RHF iter   2:   -74.93960879032747   -1.74222e+00   1.91065e-02 DIIS
   @DF-RHF iter   3:   -74.94506296571728   -5.45418e-03   4.48024e-03 DIIS
   @DF-RHF iter   4:   -74.94548880700407   -4.25841e-04   8.43708e-04 DIIS
   @DF-RHF iter   5:   -74.94550894504565   -2.01380e-05   1.60371e-04 DIIS
   @DF-RHF iter   6:   -74.94550961905409   -6.74008e-07   1.07631e-05 DIIS
   @DF-RHF iter   7:   -74.94550962084537   -1.79128e-09   4.98974e-08 DIIS
   @DF-RHF iter   8:   -74.94550962084546   -8.52651e-14   5.06879e-10 DIIS

  DF guess converged.

  ==> Integral Setup <==

 MINTS: Wrapper to libmints.
   by Justin Turney

   Calculation information:
      Number of atoms:                   3
      Number of AO shells:               5
      Number of SO shells:               4
      Number of primitives:             15
      Number of atomic orbitals:         7
      Number of basis functions:         7

      Number of irreps:                  4
      Integral cutoff                 0.00e+00
      Number of functions per irrep: [   4    0    1    2 ]

 OEINTS: Overlap, kinetic, potential, dipole, and quadrupole integrals
         stored in file 35.

      Computing two-electron integrals...done
      Computed 138 non-zero two-electron integrals.
        Stored in file 33.

	Batch   1 pq = [       0,      14] index = [             0,105]
  ==> DiskJK: Disk-Based J/K Matrices <==

    J tasked:                  Yes
    K tasked:                  Yes
    wK tasked:                  No
    Memory (MB):               183
    Schwarz Cutoff:          1E-12

   @RHF iter   9:   -74.94502100966508    4.88611e-04   2.06936e-05 DIIS
   @RHF iter  10:   -74.94502101050824   -8.43158e-10   1.26987e-06 DIIS
   @RHF iter  11:   -74.94502101053374   -2.54943e-11   3.82451e-07 DIIS
   @RHF iter  12:   -74.94502101053803   -4.29168e-12   5.58465e-08 DIIS
   @RHF iter  13:   -74.94502101053814   -1.13687e-13   3.73940e-09 DIIS

  ==> Post-Iterations <==

    Orbital Energies (a.u.)
    -----------------------

    Doubly Occupied:                                                      

       1A1   -20.236192     2A1    -1.300480     1B2    -0.649309  
       3A1    -0.460194     1B1    -0.396298  

    Virtual:                                                              

       4A1     0.664827     2B2     0.813314  

    Final Occupation by Irrep:
             A1    A2    B1    B2 
    DOCC [     3,    0,    1,    1 ]

  Energy converged.

  @RHF Final Energy:   -74.94502101053814

   => Energetics <=

    Nuclear Repulsion Energy =              9.7794061444134073
    One-Electron Energy =                -123.3639077668481150
    Two-Electron Energy =                  38.6394806118965803
    DFT Exchange-Correlation Energy =       0.0000000000000000
    Empirical Dispersion Energy =           0.0000000000000000
    PCM Polarization Energy =               0.0000000000000000
    Total Energy =                        -74.9450210105381416



Properties will be evaluated at   0.000000,   0.000000,   0.000000 Bohr
  ==> Properties <==


Properties computed using the SCF density matrix

  Nuclear Dipole Moment: (a.u.)
     X:     0.0000      Y:     0.0000      Z:     0.9172

  Electronic Dipole Moment: (a.u.)
     X:     0.0000      Y:     0.0000      Z:    -0.2095

  Dipole Moment: (a.u.)
     X:     0.0000      Y:     0.0000      Z:     0.7076     Total:     0.7076

  Dipole Moment: (Debye)
     X:     0.0000      Y:     0.0000      Z:     1.7986     Total:     1.7986


  Saving occupied orbitals to File 180.

*** tstop() called on Jeffs-MacBook-Pro.local at Mon Mar 23 18:29:01 2015
Module time:
	user time   =       0.24 seconds =       0.00 minutes
	system time =       0.01 seconds =       0.00 minutes
	total time  =          0 seconds =       0.00 minutes
Total time:
	user time   =       0.25 seconds =       0.00 minutes
	system time =       0.01 seconds =       0.00 minutes
	total time  =          0 seconds =       0.00 minutes
Reading options from the MYSCF block
Calling plugin myscf.so.
    Molecular point group: c2v
    Full point group: C2v

    Geometry (in Angstrom), charge = 0, multiplicity = 1:

       Center              X                  Y                   Z       
    ------------   -----------------  -----------------  -----------------
           O          0.000000000000     0.000000000000    -0.061664597379
           H          0.000000000000    -0.711620616369     0.489330954652
           H          0.000000000000     0.711620616369     0.489330954652


    Nuclear repulsion energy:       9.77940614

  ## Overlap (Symmetry 0) ##
  Irrep: 1 Size: 7 x 7

                 1                   2                   3                   4                   5

    1     1.00000000000000     0.23670393651085     0.00000000000000     0.00000000000000     0.00000000000000
    2     0.23670393651085     1.00000000000000     0.00000000000000     0.00000000000000     0.00000000000000
    3     0.00000000000000     0.00000000000000     1.00000000000000     0.00000000000000     0.00000000000000
    4     0.00000000000000     0.00000000000000     0.00000000000000     1.00000000000000     0.00000000000000
    5     0.00000000000000     0.00000000000000     0.00000000000000     0.00000000000000     1.00000000000000
    6     0.06178327742757     0.51304925582528     0.25254598381135     0.00000000000000    -0.32616765779508
    7     0.06178327742757     0.51304925582528     0.25254598381135     0.00000000000000     0.32616765779508

                 6                   7

    1     0.06178327742757     0.06178327742757
    2     0.51304925582528     0.51304925582528
    3     0.25254598381135     0.25254598381135
    4     0.00000000000000     0.00000000000000
    5    -0.32616765779508     0.32616765779508
    6     1.00000000000000     0.28626575599269
    7     0.28626575599269     1.00000000000000



  ## Kinetic (Symmetry 0) ##
  Irrep: 1 Size: 7 x 7

                 1                   2                   3                   4                   5

    1    29.00319994553958    -0.16801093931649     0.00000000000000     0.00000000000000     0.00000000000000
    2    -0.16801093931649     0.80812795493035     0.00000000000000     0.00000000000000     0.00000000000000
    3     0.00000000000000     0.00000000000000     2.52873119819476     0.00000000000000     0.00000000000000
    4     0.00000000000000     0.00000000000000     0.00000000000000     2.52873119819476     0.00000000000000
    5     0.00000000000000     0.00000000000000     0.00000000000000     0.00000000000000     2.52873119819476
    6     0.00222535605822     0.15794810851302     0.20211408363275     0.00000000000000    -0.26103395615722
    7     0.00222535605822     0.15794810851302     0.20211408363275     0.00000000000000     0.26103395615722

                 6                   7

    1     0.00222535605822     0.00222535605822
    2     0.15794810851302     0.15794810851302
    3     0.20211408363275     0.20211408363275
    4     0.00000000000000     0.00000000000000
    5    -0.26103395615722     0.26103395615722
    6     0.76003188356661     0.01708903320174
    7     0.01708903320174     0.76003188356661



  ## Potential (Symmetry 0) ##
  Irrep: 1 Size: 7 x 7

                 1                   2                   3                   4                   5

    1   -61.79440425784485    -7.46143128550798    -0.02150044920205     0.00000000000000     0.00000000000000
    2    -7.46143128550798   -10.20567911322585    -0.24679227142554     0.00000000000000     0.00000000000000
    3    -0.02150044920205    -0.24679227142554   -10.14448528539026     0.00000000000000     0.00000000000000
    4     0.00000000000000     0.00000000000000     0.00000000000000   -10.03745126852369     0.00000000000000
    5     0.00000000000000     0.00000000000000     0.00000000000000     0.00000000000000   -10.21598598633731
    6    -2.00866388209570    -4.28175272679304    -1.96774549326859     0.00000000000000     2.42948081005922
    7    -2.00866388209570    -4.28175272679304    -1.96774549326859     0.00000000000000    -2.42948081005922

                 6                   7

    1    -2.00866388209570    -2.00866388209570
    2    -4.28175272679304    -4.28175272679304
    3    -1.96774549326859    -1.96774549326859
    4     0.00000000000000     0.00000000000000
    5     2.42948081005922    -2.42948081005922
    6    -6.08610919860604    -1.90967740661139
    7    -1.90967740661139    -6.08610919860604



  ## One Electron Ints (Symmetry 0) ##
  Irrep: 1 Size: 7 x 7

                 1                   2                   3                   4                   5

    1   -32.79120431230528    -7.62944222482447    -0.02150044920205     0.00000000000000     0.00000000000000
    2    -7.62944222482447    -9.39755115829550    -0.24679227142554     0.00000000000000     0.00000000000000
    3    -0.02150044920205    -0.24679227142554    -7.61575408719549     0.00000000000000     0.00000000000000
    4     0.00000000000000     0.00000000000000     0.00000000000000    -7.50872007032893     0.00000000000000
    5     0.00000000000000     0.00000000000000     0.00000000000000     0.00000000000000    -7.68725478814254
    6    -2.00643852603748    -4.12380461828003    -1.76563140963584     0.00000000000000     2.16844685390201
    7    -2.00643852603748    -4.12380461828003    -1.76563140963584     0.00000000000000    -2.16844685390201

                 6                   7

    1    -2.00643852603748    -2.00643852603748
    2    -4.12380461828003    -4.12380461828003
    3    -1.76563140963584    -1.76563140963584
    4     0.00000000000000     0.00000000000000
    5     2.16844685390201    -2.16844685390201
    6    -5.32607731503943    -1.89258837340964
    7    -1.89258837340964    -5.32607731503943




  Two-electron Integrals

	( 0  0 |  0  0) =    4.785065404705502
	( 1  0 |  0  0) =    0.741380351973408
	( 1  1 |  0  0) =    1.118946866342470
	( 1  0 |  1  0) =    0.136873385354388
	( 1  1 |  1  0) =    0.256633394730974
	( 1  1 |  1  1) =    0.817206321526058
	( 2  0 |  0  0) =    0.000000000000000
	( 3  0 |  0  0) =    0.000000000000000
	( 4  0 |  0  0) =    0.000000000000000
	( 2  1 |  0  0) =    0.000000000000000
	( 3  1 |  0  0) =    0.000000000000000
	( 4  1 |  0  0) =    0.000000000000000
	( 2  0 |  1  0) =    0.000000000000000
	( 3  0 |  1  0) =    0.000000000000000
	( 4  0 |  1  0) =    0.000000000000000
	( 2  1 |  1  0) =   -0.000000000000000
	( 3  1 |  1  0) =    0.000000000000000
	( 4  1 |  1  0) =    0.000000000000000
	( 2  0 |  1  1) =    0.000000000000000
	( 3  0 |  1  1) =    0.000000000000000
	( 4  0 |  1  1) =    0.000000000000000
	( 2  1 |  1  1) =    0.000000000000000
	( 3  1 |  1  1) =    0.000000000000000
	( 4  1 |  1  1) =    0.000000000000000
	( 2  2 |  0  0) =    1.115813812152427
	( 3  2 |  0  0) =    0.000000000000000
	( 3  3 |  0  0) =    1.115813812152427
	( 4  2 |  0  0) =    0.000000000000000
	( 4  3 |  0  0) =    0.000000000000000
	( 4  4 |  0  0) =    1.115813812152427
	( 2  0 |  2  0) =    0.024477412258099
	( 3  0 |  2  0) =    0.000000000000000
	( 3  0 |  3  0) =    0.024477412258099
	( 4  0 |  2  0) =    0.000000000000000
	( 4  0 |  3  0) =    0.000000000000000
	( 4  0 |  4  0) =    0.024477412258099
	( 2  2 |  1  0) =    0.256683985810103
	( 3  2 |  1  0) =    0.000000000000000
	( 3  3 |  1  0) =    0.256683985810103
	( 4  2 |  1  0) =    0.000000000000000
	( 4  3 |  1  0) =    0.000000000000000
	( 4  4 |  1  0) =    0.256683985810103
	( 2  1 |  2  0) =    0.037808607416361
	( 3  0 |  2  1) =    0.000000000000000
	( 4  0 |  2  1) =    0.000000000000000
	( 3  1 |  2  0) =    0.000000000000000
	( 3  1 |  3  0) =    0.037808607416361
	( 4  0 |  3  1) =    0.000000000000000
	( 4  1 |  2  0) =    0.000000000000000
	( 4  1 |  3  0) =    0.000000000000000
	( 4  1 |  4  0) =    0.037808607416361
	( 2  2 |  1  1) =    0.817022605320914
	( 3  2 |  1  1) =    0.000000000000000
	( 3  3 |  1  1) =    0.817022605320914
	( 4  2 |  1  1) =    0.000000000000000
	( 4  3 |  1  1) =    0.000000000000000
	( 4  4 |  1  1) =    0.817022605320914
	( 2  1 |  2  1) =    0.180518392104632
	( 3  1 |  2  1) =    0.000000000000000
	( 3  1 |  3  1) =    0.180518392104632
	( 4  1 |  2  1) =    0.000000000000000
	( 4  1 |  3  1) =    0.000000000000000
	( 4  1 |  4  1) =    0.180518392104632
	( 2  2 |  2  0) =    0.000000000000000
	( 3  2 |  2  0) =    0.000000000000000
	( 3  3 |  2  0) =    0.000000000000000
	( 4  2 |  2  0) =    0.000000000000000
	( 4  3 |  2  0) =    0.000000000000000
	( 4  4 |  2  0) =    0.000000000000000
	( 3  0 |  2  2) =    0.000000000000000
	( 3  2 |  3  0) =    0.000000000000000
	( 3  3 |  3  0) =    0.000000000000000
	( 4  2 |  3  0) =    0.000000000000000
	( 4  3 |  3  0) =    0.000000000000000
	( 4  4 |  3  0) =    0.000000000000000
	( 4  0 |  2  2) =    0.000000000000000
	( 4  0 |  3  2) =    0.000000000000000
	( 4  0 |  3  3) =    0.000000000000000
	( 4  2 |  4  0) =    0.000000000000000
	( 4  3 |  4  0) =    0.000000000000000
	( 4  4 |  4  0) =    0.000000000000000
	( 2  2 |  2  1) =    0.000000000000000
	( 3  2 |  2  1) =    0.000000000000000
	( 3  3 |  2  1) =    0.000000000000000
	( 4  2 |  2  1) =    0.000000000000000
	( 4  3 |  2  1) =    0.000000000000000
	( 4  4 |  2  1) =    0.000000000000000
	( 3  1 |  2  2) =    0.000000000000000
	( 3  2 |  3  1) =    0.000000000000000
	( 3  3 |  3  1) =    0.000000000000000
	( 4  2 |  3  1) =    0.000000000000000
	( 4  3 |  3  1) =    0.000000000000000
	( 4  4 |  3  1) =    0.000000000000000
	( 4  1 |  2  2) =    0.000000000000000
	( 4  1 |  3  2) =    0.000000000000000
	( 4  1 |  3  3) =    0.000000000000000
	( 4  2 |  4  1) =    0.000000000000000
	( 4  3 |  4  1) =    0.000000000000000
	( 4  4 |  4  1) =    0.000000000000000
	( 2  2 |  2  2) =    0.880159093375045
	( 3  2 |  2  2) =    0.000000000000000
	( 3  2 |  3  2) =    0.047444445118384
	( 3  3 |  2  2) =    0.785270203138277
	( 3  3 |  3  2) =    0.000000000000000
	( 3  3 |  3  3) =    0.880159093375045
	( 4  2 |  2  2) =    0.000000000000000
	( 4  2 |  3  2) =    0.000000000000000
	( 4  2 |  3  3) =    0.000000000000000
	( 4  2 |  4  2) =    0.047444445118384
	( 4  3 |  2  2) =    0.000000000000000
	( 4  3 |  3  2) =    0.000000000000000
	( 4  3 |  3  3) =    0.000000000000000
	( 4  3 |  4  2) =    0.000000000000000
	( 4  3 |  4  3) =    0.047444445118384
	( 4  4 |  2  2) =    0.785270203138277
	( 4  4 |  3  2) =    0.000000000000000
	( 4  4 |  3  3) =    0.785270203138277
	( 4  4 |  4  2) =    0.000000000000000
	( 4  4 |  4  3) =    0.000000000000000
	( 4  4 |  4  4) =    0.880159093375045
	( 5  0 |  0  0) =    0.196989249709503
	( 5  1 |  0  0) =    0.444893704631716
	( 5  0 |  1  0) =    0.036024085068876
	( 5  1 |  1  0) =    0.103164766449675
	( 5  0 |  1  1) =    0.066987722568492
	( 5  1 |  1  1) =    0.359732524850059
	( 5  2 |  0  0) =    0.186915884422918
	( 5  3 |  0  0) =    0.000000000000000
	( 5  4 |  0  0) =   -0.241405209882339
	( 5  0 |  2  0) =    0.001003850121853
	( 5  0 |  3  0) =    0.000000000000000
	( 5  0 |  4  0) =   -0.001296490397831
	( 5  2 |  1  0) =    0.043937065835859
	( 5  3 |  1  0) =    0.000000000000000
	( 5  4 |  1  0) =   -0.056745506849065
	( 5  1 |  2  0) =    0.004687753167900
	( 5  1 |  3  0) =    0.000000000000000
	( 5  1 |  4  0) =   -0.006054317110969
	( 5  0 |  2  1) =    0.001869406232456
	( 5  0 |  3  1) =    0.000000000000000
	( 5  0 |  4  1) =   -0.002414371605146
	( 5  2 |  1  1) =    0.163693540107671
	( 5  3 |  1  1) =    0.000000000000000
	( 5  4 |  1  1) =   -0.211413136599267
	( 5  1 |  2  1) =    0.034713086601058
	( 5  1 |  3  1) =    0.000000000000000
	( 5  1 |  4  1) =   -0.044832572589880
	( 5  2 |  2  0) =    0.012972282224381
	( 5  2 |  3  0) =    0.000000000000000
	( 5  2 |  4  0) =   -0.002284822670882
	( 5  3 |  2  0) =    0.000000000000000
	( 5  3 |  3  0) =    0.011203183494136
	( 5  3 |  4  0) =    0.000000000000000
	( 5  4 |  2  0) =   -0.002284822670882
	( 5  4 |  3  0) =    0.000000000000000
	( 5  4 |  4  0) =    0.014154072864031
	( 5  0 |  2  2) =    0.067005967597151
	( 5  0 |  3  2) =    0.000000000000000
	( 5  0 |  3  3) =    0.066863964093063
	( 5  0 |  4  2) =   -0.000183400066903
	( 5  0 |  4  3) =    0.000000000000000
	( 5  0 |  4  4) =    0.067100828561698
	( 5  2 |  2  1) =    0.078847091805890
	( 5  2 |  3  1) =    0.000000000000000
	( 5  2 |  4  1) =   -0.019551319579413
	( 5  3 |  2  1) =    0.000000000000000
	( 5  3 |  3  1) =    0.063708842749035
	( 5  3 |  4  1) =    0.000000000000000
	( 5  4 |  2  1) =   -0.019551319579413
	( 5  4 |  3  1) =    0.000000000000000
	( 5  4 |  4  1) =    0.088959721887085
	( 5  1 |  2  2) =    0.360331241600179
	( 5  1 |  3  2) =    0.000000000000000
	( 5  1 |  3  3) =    0.353930575183423
	( 5  1 |  4  2) =   -0.008266575227110
	( 5  1 |  4  3) =    0.000000000000000
	( 5  1 |  4  4) =    0.364607005032442
	( 5  2 |  2  2) =    0.173750168821052
	( 5  2 |  3  2) =    0.000000000000000
	( 5  2 |  3  3) =    0.156146515876205
	( 5  2 |  4  2) =   -0.013249429622447
	( 5  2 |  4  3) =    0.000000000000000
	( 5  2 |  4  4) =    0.161007048452460
	( 5  3 |  2  2) =    0.000000000000000
	( 5  3 |  3  2) =    0.007344848434431
	( 5  3 |  3  3) =    0.000000000000000
	( 5  3 |  4  2) =    0.000000000000000
	( 5  3 |  4  3) =   -0.009486003200541
	( 5  3 |  4  4) =    0.000000000000000
	( 5  4 |  2  2) =   -0.205429446160512
	( 5  4 |  3  2) =    0.000000000000000
	( 5  4 |  3  3) =   -0.201666019738606
	( 5  4 |  4  2) =    0.012205381010686
	( 5  4 |  4  3) =    0.000000000000000
	( 5  4 |  4  4) =   -0.226915490948702
	( 5  5 |  0  0) =    0.560230046380319
	( 5  0 |  5  0) =    0.009602115418274
	( 5  5 |  1  0) =    0.132009310329941
	( 5  1 |  5  0) =    0.027603422939005
	( 5  5 |  1  1) =    0.524260432408376
	( 5  1 |  5  1) =    0.190557333244081
	( 5  5 |  2  0) =    0.008291410528086
	( 5  5 |  3  0) =    0.000000000000000
	( 5  5 |  4  0) =   -0.010708505084696
	( 5  2 |  5  0) =    0.012314281305233
	( 5  3 |  5  0) =    0.000000000000000
	( 5  4 |  5  0) =   -0.015904114688904
	( 5  5 |  2  1) =    0.082398848267720
	( 5  5 |  3  1) =    0.000000000000000
	( 5  5 |  4  1) =   -0.106419587193162
	( 5  2 |  5  1) =    0.105340723615587
	( 5  3 |  5  1) =    0.000000000000000
	( 5  4 |  5  1) =   -0.136049429785435
	( 5  5 |  2  2) =    0.526687645945478
	( 5  5 |  3  2) =    0.000000000000000
	( 5  5 |  3  3) =    0.502899429708512
	( 5  5 |  4  2) =   -0.030722906997128
	( 5  5 |  4  3) =    0.000000000000000
	( 5  5 |  4  4) =    0.542578613929453
	( 5  2 |  5  2) =    0.085915338608171
	( 5  3 |  5  2) =    0.000000000000000
	( 5  3 |  5  3) =    0.028285255593085
	( 5  4 |  5  2) =   -0.074430283593852
	( 5  4 |  5  3) =    0.000000000000000
	( 5  4 |  5  4) =    0.124413298900103
	( 5  5 |  5  0) =    0.035698177195732
	( 5  5 |  5  1) =    0.338202301272807
	( 5  5 |  5  2) =    0.213813253561476
	( 5  5 |  5  3) =    0.000000000000000
	( 5  5 |  5  4) =   -0.276143643494993
	( 5  5 |  5  5) =    0.774605943919898
	( 6  0 |  0  0) =    0.196989249709503
	( 6  1 |  0  0) =    0.444893704631716
	( 6  0 |  1  0) =    0.036024085068876
	( 6  1 |  1  0) =    0.103164766449675
	( 6  0 |  1  1) =    0.066987722568492
	( 6  1 |  1  1) =    0.359732524850059
	( 6  2 |  0  0) =    0.186915884422918
	( 6  3 |  0  0) =    0.000000000000000
	( 6  4 |  0  0) =    0.241405209882339
	( 6  0 |  2  0) =    0.001003850121853
	( 6  0 |  3  0) =    0.000000000000000
	( 6  0 |  4  0) =    0.001296490397831
	( 6  2 |  1  0) =    0.043937065835859
	( 6  3 |  1  0) =    0.000000000000000
	( 6  4 |  1  0) =    0.056745506849065
	( 6  1 |  2  0) =    0.004687753167900
	( 6  1 |  3  0) =    0.000000000000000
	( 6  1 |  4  0) =    0.006054317110969
	( 6  0 |  2  1) =    0.001869406232456
	( 6  0 |  3  1) =    0.000000000000000
	( 6  0 |  4  1) =    0.002414371605146
	( 6  2 |  1  1) =    0.163693540107671
	( 6  3 |  1  1) =    0.000000000000000
	( 6  4 |  1  1) =    0.211413136599267
	( 6  1 |  2  1) =    0.034713086601058
	( 6  1 |  3  1) =    0.000000000000000
	( 6  1 |  4  1) =    0.044832572589880
	( 6  2 |  2  0) =    0.012972282224381
	( 6  2 |  3  0) =    0.000000000000000
	( 6  2 |  4  0) =    0.002284822670882
	( 6  3 |  2  0) =    0.000000000000000
	( 6  3 |  3  0) =    0.011203183494136
	( 6  3 |  4  0) =    0.000000000000000
	( 6  4 |  2  0) =    0.002284822670882
	( 6  4 |  3  0) =    0.000000000000000
	( 6  4 |  4  0) =    0.014154072864031
	( 6  0 |  2  2) =    0.067005967597151
	( 6  0 |  3  2) =    0.000000000000000
	( 6  0 |  3  3) =    0.066863964093063
	( 6  0 |  4  2) =    0.000183400066903
	( 6  0 |  4  3) =    0.000000000000000
	( 6  0 |  4  4) =    0.067100828561698
	( 6  2 |  2  1) =    0.078847091805890
	( 6  2 |  3  1) =    0.000000000000000
	( 6  2 |  4  1) =    0.019551319579413
	( 6  3 |  2  1) =    0.000000000000000
	( 6  3 |  3  1) =    0.063708842749035
	( 6  3 |  4  1) =    0.000000000000000
	( 6  4 |  2  1) =    0.019551319579413
	( 6  4 |  3  1) =    0.000000000000000
	( 6  4 |  4  1) =    0.088959721887085
	( 6  1 |  2  2) =    0.360331241600179
	( 6  1 |  3  2) =    0.000000000000000
	( 6  1 |  3  3) =    0.353930575183423
	( 6  1 |  4  2) =    0.008266575227110
	( 6  1 |  4  3) =    0.000000000000000
	( 6  1 |  4  4) =    0.364607005032442
	( 6  2 |  2  2) =    0.173750168821052
	( 6  2 |  3  2) =    0.000000000000000
	( 6  2 |  3  3) =    0.156146515876205
	( 6  2 |  4  2) =    0.013249429622447
	( 6  2 |  4  3) =    0.000000000000000
	( 6  2 |  4  4) =    0.161007048452460
	( 6  3 |  2  2) =    0.000000000000000
	( 6  3 |  3  2) =    0.007344848434431
	( 6  3 |  3  3) =    0.000000000000000
	( 6  3 |  4  2) =    0.000000000000000
	( 6  3 |  4  3) =    0.009486003200541
	( 6  3 |  4  4) =    0.000000000000000
	( 6  4 |  2  2) =    0.205429446160512
	( 6  4 |  3  2) =    0.000000000000000
	( 6  4 |  3  3) =    0.201666019738606
	( 6  4 |  4  2) =    0.012205381010686
	( 6  4 |  4  3) =    0.000000000000000
	( 6  4 |  4  4) =    0.226915490948702
	( 6  5 |  0  0) =    0.189978351281821
	( 6  0 |  5  0) =    0.009456726803502
	( 6  5 |  1  0) =    0.044418304770903
	( 6  1 |  5  0) =    0.026756837912470
	( 6  0 |  5  1) =    0.026756837912470
	( 6  5 |  1  1) =    0.166748207183066
	( 6  1 |  5  1) =    0.157774859147314
	( 6  5 |  2  0) =    0.003246904342251
	( 6  5 |  3  0) =    0.000000000000000
	( 6  5 |  4  0) =    0.000000000000000
	( 6  2 |  5  0) =    0.011940511731215
	( 6  3 |  5  0) =    0.000000000000000
	( 6  4 |  5  0) =    0.013994726032520
	( 6  0 |  5  2) =    0.011940511731215
	( 6  0 |  5  3) =    0.000000000000000
	( 6  0 |  5  4) =   -0.013994726032520
	( 6  5 |  2  1) =    0.027972791485262
	( 6  5 |  3  1) =    0.000000000000000
	( 6  5 |  4  1) =    0.000000000000000
	( 6  2 |  5  1) =    0.084883088633399
	( 6  3 |  5  1) =    0.000000000000000
	( 6  4 |  5  1) =    0.076923409894626
	( 6  1 |  5  2) =    0.084883088633399
	( 6  1 |  5  3) =    0.000000000000000
	( 6  1 |  5  4) =   -0.076923409894626
	( 6  5 |  2  2) =    0.170793662457047
	( 6  5 |  3  2) =    0.000000000000000
	( 6  5 |  3  3) =    0.163025689710797
	( 6  5 |  4  2) =   -0.000000000000000
	( 6  5 |  4  3) =    0.000000000000000
	( 6  5 |  4  4) =    0.166251925769566
	( 6  2 |  5  2) =    0.067722571870617
	( 6  2 |  5  3) =    0.000000000000000
	( 6  2 |  5  4) =   -0.040356808899469
	( 6  3 |  5  2) =    0.000000000000000
	( 6  3 |  5  3) =    0.022749110966692
	( 6  3 |  5  4) =    0.000000000000000
	( 6  4 |  5  2) =    0.040356808899469
	( 6  4 |  5  3) =    0.000000000000000
	( 6  4 |  5  4) =   -0.015073648324181
	( 6  5 |  5  0) =    0.011767347153954
	( 6  0 |  5  5) =    0.034138467250315
	( 6  5 |  5  1) =    0.087008812494567
	( 6  1 |  5  5) =    0.234232586386161
	( 6  5 |  5  2) =    0.054076511363435
	( 6  5 |  5  3) =    0.000000000000000
	( 6  5 |  5  4) =   -0.053267540625645
	( 6  2 |  5  5) =    0.138781445367287
	( 6  3 |  5  5) =    0.000000000000000
	( 6  4 |  5  5) =    0.098731697495619
	( 6  5 |  5  5) =    0.156920256734736
	( 6  6 |  0  0) =    0.560230046380319
	( 6  0 |  6  0) =    0.009602115418274
	( 6  6 |  1  0) =    0.132009310329941
	( 6  1 |  6  0) =    0.027603422939005
	( 6  6 |  1  1) =    0.524260432408376
	( 6  1 |  6  1) =    0.190557333244081
	( 6  6 |  2  0) =    0.008291410528086
	( 6  6 |  3  0) =    0.000000000000000
	( 6  6 |  4  0) =    0.010708505084696
	( 6  2 |  6  0) =    0.012314281305233
	( 6  3 |  6  0) =    0.000000000000000
	( 6  4 |  6  0) =    0.015904114688904
	( 6  6 |  2  1) =    0.082398848267720
	( 6  6 |  3  1) =    0.000000000000000
	( 6  6 |  4  1) =    0.106419587193162
	( 6  2 |  6  1) =    0.105340723615587
	( 6  3 |  6  1) =    0.000000000000000
	( 6  4 |  6  1) =    0.136049429785435
	( 6  6 |  2  2) =    0.526687645945478
	( 6  6 |  3  2) =    0.000000000000000
	( 6  6 |  3  3) =    0.502899429708512
	( 6  6 |  4  2) =    0.030722906997128
	( 6  6 |  4  3) =    0.000000000000000
	( 6  6 |  4  4) =    0.542578613929453
	( 6  2 |  6  2) =    0.085915338608171
	( 6  3 |  6  2) =    0.000000000000000
	( 6  3 |  6  3) =    0.028285255593085
	( 6  4 |  6  2) =    0.074430283593852
	( 6  4 |  6  3) =    0.000000000000000
	( 6  4 |  6  4) =    0.124413298900103
	( 6  6 |  5  0) =    0.034138467250315
	( 6  5 |  6  0) =    0.011767347153954
	( 6  6 |  5  1) =    0.234232586386161
	( 6  5 |  6  1) =    0.087008812494567
	( 6  6 |  5  2) =    0.138781445367287
	( 6  6 |  5  3) =    0.000000000000000
	( 6  6 |  5  4) =   -0.098731697495619
	( 6  5 |  6  2) =    0.054076511363435
	( 6  5 |  6  3) =    0.000000000000000
	( 6  5 |  6  4) =    0.053267540625645
	( 6  6 |  5  5) =    0.362315435522326
	( 6  5 |  6  5) =    0.047325268651739
	( 6  6 |  6  0) =    0.035698177195732
	( 6  6 |  6  1) =    0.338202301272807
	( 6  6 |  6  2) =    0.213813253561476
	( 6  6 |  6  3) =    0.000000000000000
	( 6  6 |  6  4) =    0.276143643494993
	( 6  6 |  6  5) =    0.156920256734736
	( 6  6 |  6  6) =    0.774605943919898

	There are 406 unique integrals

  ## sEvals (Symmetry 0) ##
  Irrep: 1 Size: 7 x 7

                 1                   2                   3                   4                   5

    1     1.81215937099438     0.00000000000000     0.00000000000000     0.00000000000000     0.00000000000000
    2     0.00000000000000     1.63539454610005     0.00000000000000     0.00000000000000     0.00000000000000
    3     0.00000000000000     0.00000000000000     1.06241585493157     0.00000000000000     0.00000000000000
    4     0.00000000000000     0.00000000000000     0.00000000000000     1.00000000000000     0.00000000000000
    5     0.00000000000000     0.00000000000000     0.00000000000000     0.00000000000000     0.95802598869352
    6     0.00000000000000     0.00000000000000     0.00000000000000     0.00000000000000     0.00000000000000
    7     0.00000000000000     0.00000000000000     0.00000000000000     0.00000000000000     0.00000000000000

                 6                   7

    1     0.00000000000000     0.00000000000000
    2     0.00000000000000     0.00000000000000
    3     0.00000000000000     0.00000000000000
    4     0.00000000000000     0.00000000000000
    5     0.00000000000000     0.00000000000000
    6     0.86392170601612     0.00000000000000
    7     0.00000000000000     0.70600403523674



  ## sMatInv (Symmetry 0) ##
  Irrep: 1 Size: 7 x 7

                 1                   2                   3                   4                   5

    1     1.02443225256320    -0.14656220792794    -0.01147567968374    -0.00000000000000    -0.00000000000000
    2    -0.14656220792794     1.29934109104667     0.13394058599916     0.00000000000000    -0.00000000000000
    3    -0.01147567968374     0.13394058599916     1.06467095166626    -0.00000000000000     0.00000000000000
    4    -0.00000000000000     0.00000000000000    -0.00000000000000     1.00000000000000    -0.00000000000000
    5    -0.00000000000000    -0.00000000000000     0.00000000000000    -0.00000000000000     1.13534080138215
    6     0.02309981525344    -0.33479381413684    -0.16215336625658    -0.00000000000000     0.26050348848502
    7     0.02309981525344    -0.33479381413684    -0.16215336625657     0.00000000000000    -0.26050348848502

                 6                   7

    1     0.02309981525344     0.02309981525344
    2    -0.33479381413684    -0.33479381413684
    3    -0.16215336625658    -0.16215336625658
    4    -0.00000000000000     0.00000000000000
    5     0.26050348848502    -0.26050348848502
    6     1.25706820265704    -0.10690724807697
    7    -0.10690724807697     1.25706820265704



  ## fInit (Symmetry 0) ##
  Irrep: 1 Size: 7 x 7

                 1                   2                   3                   4                   5

    1   -32.46518956031942    -2.76428852654099     0.02556434922062     0.00000000000000     0.00000000000000
    2    -2.76428852654098    -8.40574149645782    -0.30719788230943    -0.00000000000000     0.00000000000000
    3     0.02556434922062    -0.30719788230943    -7.66897323812679     0.00000000000000    -0.00000000000000
    4     0.00000000000000    -0.00000000000000     0.00000000000000    -7.50872007032893     0.00000000000000
    5     0.00000000000000     0.00000000000000    -0.00000000000000     0.00000000000000    -7.80950757407104
    6    -0.37455282578809    -0.57845849626853    -0.16543280323698     0.00000000000000     0.15874460289006
    7    -0.37455282578808    -0.57845849626853    -0.16543280323698    -0.00000000000000    -0.15874460289006

                 6                   7

    1    -0.37455282578809    -0.37455282578808
    2    -0.57845849626853    -0.57845849626854
    3    -0.16543280323698    -0.16543280323698
    4     0.00000000000000    -0.00000000000000
    5     0.15874460289006    -0.15874460289006
    6    -4.40110679794341    -0.05197158337968
    7    -0.05197158337968    -4.40110679794342



nocc: 5
Initial Electronic Energy: -128.087636864609 a.u.
Initial HF-SCF Energy: -118.308230720195 a.u.

Starting SCF Procedure:

Iter        E(elec)              E(tot)               Delta(E)              RMS(D)
01     -81.250756723571     -71.471350579158      46.836880141038       1.897382325805
02     -84.856179821281     -75.076773676868      -3.605423097710       0.112055854061
03     -84.719607260876     -74.940201116463       0.136572560405       0.028478539227
04     -84.725678239806     -74.946272095393      -0.006070978930       0.010516619958
05     -84.724831895629     -74.945425751215       0.000846344177       0.004069972918
06     -84.724602936780     -74.945196792367       0.000228958849       0.001630815266
07     -84.724499815361     -74.945093670948       0.000103121419       0.000664041360
08     -84.724457254705     -74.945051110291       0.000042560656       0.000272665548
09     -84.724439618482     -74.945033474069       0.000017636222       0.000112456604
10     -84.724432318047     -74.945026173634       0.000007300435       0.000046492590
11     -84.724429294570     -74.945023150157       0.000003023477       0.000019246934
12     -84.724428041858     -74.945021897445       0.000001252712       0.000007973792
13     -84.724427522653     -74.945021378239       0.000000519206       0.000003304858
14     -84.724427307412     -74.945021162999       0.000000215240       0.000001370080
15     -84.724427218171     -74.945021073758       0.000000089241       0.000000568066
16     -84.724427181167     -74.945021036754       0.000000037004       0.000000235552
17     -84.724427165823     -74.945021021409       0.000000015344       0.000000097677
18     -84.724427159460     -74.945021015046       0.000000006363       0.000000040505
19     -84.724427156821     -74.945021012408       0.000000002639       0.000000016797
20     -84.724427155727     -74.945021011313       0.000000001094       0.000000006966
21     -84.724427155273     -74.945021010860       0.000000000454       0.000000002889
22     -84.724427155085     -74.945021010671       0.000000000188       0.000000001198
23     -84.724427155007     -74.945021010593       0.000000000078       0.000000000497
24     -84.724427154974     -74.945021010561       0.000000000032       0.000000000206
25     -84.724427154961     -74.945021010548       0.000000000014       0.000000000085
26     -84.724427154955     -74.945021010542       0.000000000005       0.000000000035
27     -84.724427154953     -74.945021010540       0.000000000002       0.000000000015
28     -84.724427154952     -74.945021010539       0.000000000001       0.000000000006

SCF Electronic Energy:     -84.724427154952 a.u.
SCF Nuclear Energy:          9.779406144413 a.u.
SCF Total Energy:          -74.945021010539 a.u.

 =>One Electron properties<= 


Properties will be evaluated at   0.000000,   0.000000,   0.000000 Bohr

Properties computed using the SCF density matrix

  Nuclear Dipole Moment: (a.u.)
     X:     0.0000      Y:     0.0000      Z:     0.9172

  Electronic Dipole Moment: (a.u.)
     X:     0.0000      Y:     0.0000      Z:    -0.2095

  Dipole Moment: (a.u.)
     X:     0.0000      Y:     0.0000      Z:     0.7076     Total:     0.7076

  Dipole Moment: (Debye)
     X:     0.0000      Y:     0.0000      Z:     1.7986     Total:     1.7986

  Mulliken Charges: (a.u.)
   Center  Symbol    Alpha    Beta     Spin     Total
       1     O     4.21236  4.21236  0.00000 -0.42471
       2     H     0.39382  0.39382  0.00000  0.21236
       3     H     0.39382  0.39382  0.00000  0.21236

   Total alpha =  5.00000, Total beta =  5.00000, Total charge = -0.00000


*** PSI4 exiting successfully. Buy a developer a beer!
