    -----------------------------------------------------------------------
          PSI4: An Open-Source Ab Initio Electronic Structure Package
                              PSI 4.0 Driver

               Git: Rev {master} fdb9578f5cb0074d552ae8944aabc354df928483

    J. M. Turney, A. C. Simmonett, R. M. Parrish, E. G. Hohenstein,
    F. A. Evangelista, J. T. Fermann, B. J. Mintz, L. A. Burns, J. J. Wilke,
    M. L. Abrams, N. J. Russ, M. L. Leininger, C. L. Janssen, E. T. Seidl,
    W. D. Allen, H. F. Schaefer, R. A. King, E. F. Valeev, C. D. Sherrill,
    and T. D. Crawford, WIREs Comput. Mol. Sci. 2, 556-565 (2012)
    (doi: 10.1002/wcms.93)

                         Additional Contributions by
    A. E. DePrince, M. Saitow, U. Bozkaya, A. Yu. Sokolov
    -----------------------------------------------------------------------

    Process ID:  47787
    PSI4DATADIR: /Users/jeffschriber/Source/psi4/lib
    Memory level set to 256.000 MB

  ==> Input File <==

--------------------------------------------------------------------------

# PYTHONPATH must include directory above plugin directory.
#     Define either externally or here, then import plugin.
import myscf

molecule {
C   0.000000000000  -0.143225816552   0.000000000000
H   1.638036840407   1.136548822547  -0.000000000000
H  -1.638036840407   1.136548822547  -0.000000000000

units bohr
}

set {
  basis cc-pVDZ
  scf_type pk
}

set myscf {
  print 1
}

energy('myscf')
energy('scf')

myscf.exampleFN()

--------------------------------------------------------------------------

*** tstart() called on Jeffs-MacBook-Pro.local
*** at Tue Mar 24 15:43:27 2015

/Users/jeffschriber/programming_tutorials/myscf/myscf.so loaded.

*** tstart() called on Jeffs-MacBook-Pro.local
*** at Tue Mar 24 15:43:27 2015

    There are an even number of electrons - assuming singlet.
    Specify the multiplicity with the MULTP option in the
    input if this is incorrect


         ---------------------------------------------------------
                                   SCF
            by Justin Turney, Rob Parrish, and Andy Simmonett
                              RHF Reference
                        1 Threads,    256 MiB Core
         ---------------------------------------------------------

  ==> Geometry <==

    Molecular point group: c2v
    Full point group: C2v

    Geometry (in Bohr), charge = 0, multiplicity = 1:

       Center              X                  Y                   Z       
    ------------   -----------------  -----------------  -----------------
           C          0.000000000000     0.000000000000    -0.184049817281
           H          1.638036840407     0.000000000000     1.095724821818
           H         -1.638036840407    -0.000000000000     1.095724821818

  Running in c2v symmetry.

  Rotational constants: A =     21.29826  B =     11.13094  C =      7.31038 [cm^-1]
  Rotational constants: A = 638505.72791  B = 333697.12661  C = 219159.53624 [MHz]
  Nuclear repulsion =    6.078086156356161

  Charge       = 0
  Multiplicity = 1
  Electrons    = 8
  Nalpha       = 4
  Nbeta        = 4

  ==> Algorithm <==

  SCF Algorithm Type is PK.
  DIIS enabled.
  MOM disabled.
  Fractional occupation disabled.
  Guess Type is CORE.
  Energy threshold   = 1.00e-08
  Density threshold  = 1.00e-08
  Integral threshold = 0.00e+00

  ==> Primary Basis <==

  Basis Set: STO-3G
    Number of shells: 5
    Number of basis function: 7
    Number of Cartesian functions: 7
    Spherical Harmonics?: true
    Max angular momentum: 1

  ==> Pre-Iterations <==

   -------------------------------------------------------
    Irrep   Nso     Nmo     Nalpha   Nbeta   Ndocc  Nsocc
   -------------------------------------------------------
     A1         4       4       0       0       0       0
     A2         0       0       0       0       0       0
     B1         2       2       0       0       0       0
     B2         1       1       0       0       0       0
   -------------------------------------------------------
    Total       7       7       4       4       4       0
   -------------------------------------------------------

  Starting with a DF guess...

 OEINTS: Overlap, kinetic, potential, dipole, and quadrupole integrals
         stored in file 35.

  ==> Integral Setup <==

  ==> DFJK: Density-Fitted J/K Matrices <==

    J tasked:                  Yes
    K tasked:                  Yes
    wK tasked:                  No
    OpenMP threads:              1
    Integrals threads:           1
    Memory (MB):               183
    Algorithm:                Core
    Integral Cache:           NONE
    Schwarz Cutoff:          1E-12
    Fitting Condition:       1E-12

   => Auxiliary Basis Set <=

  Basis Set: 
    Number of shells: 30
    Number of basis function: 84
    Number of Cartesian functions: 96
    Spherical Harmonics?: true
    Max angular momentum: 3

  Minimum eigenvalue in the overlap matrix is 2.7426090800E-01.
  Using Symmetric Orthogonalization.
  SCF Guess: Core (One-Electron) Hamiltonian.

  ==> Iterations <==

                           Total Energy        Delta E     RMS |[F,P]|

   @DF-RHF iter   1:   -36.66783772235746   -3.66678e+01   2.27428e-01 
   @DF-RHF iter   2:   -38.15576259172434   -1.48792e+00   2.92704e-02 DIIS
   @DF-RHF iter   3:   -38.17723667383675   -2.14741e-02   8.58063e-03 DIIS
   @DF-RHF iter   4:   -38.17952703208360   -2.29036e-03   1.55648e-03 DIIS
   @DF-RHF iter   5:   -38.17959768065508   -7.06486e-05   2.20737e-04 DIIS
   @DF-RHF iter   6:   -38.17959892662515   -1.24597e-06   9.76626e-06 DIIS
   @DF-RHF iter   7:   -38.17959892895270   -2.32755e-09   2.68993e-07 DIIS
   @DF-RHF iter   8:   -38.17959892895342   -7.24754e-13   1.16507e-08 DIIS
   @DF-RHF iter   9:   -38.17959892895342    0.00000e+00   1.01060e-10 DIIS

  DF guess converged.

  ==> Integral Setup <==

 MINTS: Wrapper to libmints.
   by Justin Turney

   Calculation information:
      Number of atoms:                   3
      Number of AO shells:               5
      Number of SO shells:               4
      Number of primitives:             15
      Number of atomic orbitals:         7
      Number of basis functions:         7

      Number of irreps:                  4
      Integral cutoff                 0.00e+00
      Number of functions per irrep: [   4    0    2    1 ]

 OEINTS: Overlap, kinetic, potential, dipole, and quadrupole integrals
         stored in file 35.

      Computing two-electron integrals...done
      Computed 138 non-zero two-electron integrals.
        Stored in file 33.

	Batch   1 pq = [       0,      14] index = [             0,105]
  ==> DiskJK: Disk-Based J/K Matrices <==

    J tasked:                  Yes
    K tasked:                  Yes
    wK tasked:                  No
    Memory (MB):               183
    Schwarz Cutoff:          1E-12

   @RHF iter  10:   -38.17926960902432    3.29320e-04   1.89007e-05 DIIS
   @RHF iter  11:   -38.17926960977027   -7.45956e-10   9.67618e-07 DIIS
   @RHF iter  12:   -38.17926960977785   -7.57439e-12   1.56355e-07 DIIS
   @RHF iter  13:   -38.17926960977864   -7.95808e-13   1.88831e-08 DIIS
   @RHF iter  14:   -38.17926960977863    1.42109e-14   2.04193e-09 DIIS

  ==> Post-Iterations <==

    Orbital Energies (a.u.)
    -----------------------

    Doubly Occupied:                                                      

       1A1   -10.912958     2A1    -0.764402     1B1    -0.467930  
       1B2    -0.213902  

    Virtual:                                                              

       3A1     0.128468     2B1     0.736767     4A1     0.788384  

    Final Occupation by Irrep:
             A1    A2    B1    B2 
    DOCC [     2,    0,    1,    1 ]

  Energy converged.

  @RHF Final Energy:   -38.17926960977863

   => Energetics <=

    Nuclear Repulsion Energy =              6.0780861563561608
    One-Electron Energy =                 -63.7963267471945130
    Two-Electron Energy =                  19.5389709810597232
    DFT Exchange-Correlation Energy =       0.0000000000000000
    Empirical Dispersion Energy =           0.0000000000000000
    PCM Polarization Energy =               0.0000000000000000
    Total Energy =                        -38.1792696097786290



Properties will be evaluated at   0.000000,   0.000000,   0.000000 Bohr
  ==> Properties <==


Properties computed using the SCF density matrix

  Nuclear Dipole Moment: (a.u.)
     X:     0.0000      Y:     0.0000      Z:     1.0872

  Electronic Dipole Moment: (a.u.)
     X:     0.0000      Y:     0.0000      Z:    -1.2312

  Dipole Moment: (a.u.)
     X:     0.0000      Y:     0.0000      Z:    -0.1440     Total:     0.1440

  Dipole Moment: (Debye)
     X:     0.0000      Y:     0.0000      Z:    -0.3661     Total:     0.3661


  Saving occupied orbitals to File 180.

*** tstop() called on Jeffs-MacBook-Pro.local at Tue Mar 24 15:43:27 2015
Module time:
	user time   =       0.23 seconds =       0.00 minutes
	system time =       0.02 seconds =       0.00 minutes
	total time  =          0 seconds =       0.00 minutes
Total time:
	user time   =       0.24 seconds =       0.00 minutes
	system time =       0.02 seconds =       0.00 minutes
	total time  =          0 seconds =       0.00 minutes
Reading options from the MYSCF block
Calling plugin myscf.so.
    Molecular point group: c2v
    Full point group: C2v

    Geometry (in Bohr), charge = 0, multiplicity = 1:

       Center              X                  Y                   Z       
    ------------   -----------------  -----------------  -----------------
           C          0.000000000000     0.000000000000    -0.184049817281
           H          1.638036840407     0.000000000000     1.095724821818
           H         -1.638036840407    -0.000000000000     1.095724821818


    Nuclear repulsion energy:       6.07808616


	There are 406 unique integrals


Initial Electronic Energy: -69.692688107079 a.u.
Initial HF-SCF Energy: -63.614601950723 a.u.

Starting SCF Procedure:

Iter        E(elec)              E(tot)               Delta(E)              RMS(D)
01     -42.278168847666     -36.200082691309     -36.200082691309       1.905475752319
02     -44.216047340440     -38.137961184083      -1.937878492774       0.105784318562
03     -44.246288981961     -38.168202825605      -0.030241641522       0.037559518705
04     -44.252915833793     -38.174829677437      -0.006626851832       0.014428922080
05     -44.255826740406     -38.177740584050      -0.002910906613       0.005629050797
06     -44.256825242923     -38.178739086567      -0.000998502517       0.002186176315
07     -44.257166904956     -38.179080748600      -0.000341662033       0.000842993221
08     -44.257286999536     -38.179200843180      -0.000120094579       0.000323223752
09     -44.257330324787     -38.179244168431      -0.000043325252       0.000123463959
10     -44.257346256011     -38.179260099655      -0.000015931224       0.000047049217
11     -44.257352188420     -38.179266032064      -0.000005932409       0.000017903806
12     -44.257354415000     -38.179268258644      -0.000002226580       0.000006807228
13     -44.257355254704     -38.179269098348      -0.000000839704       0.000002586893
14     -44.257355572286     -38.179269415930      -0.000000317582       0.000000982788
15     -44.257355692602     -38.179269536246      -0.000000120315       0.000000373307
16     -44.257355738228     -38.179269581872      -0.000000045627       0.000000141785
17     -44.257355755541     -38.179269599185      -0.000000017313       0.000000053848
18     -44.257355762113     -38.179269605757      -0.000000006572       0.000000020450
19     -44.257355764608     -38.179269608251      -0.000000002495       0.000000007766
20     -44.257355765555     -38.179269609199      -0.000000000947       0.000000002949
21     -44.257355765915     -38.179269609558      -0.000000000360       0.000000001120
22     -44.257355766051     -38.179269609695      -0.000000000137       0.000000000425
23     -44.257355766103     -38.179269609747      -0.000000000052       0.000000000162
24     -44.257355766123     -38.179269609767      -0.000000000020       0.000000000061
25     -44.257355766130     -38.179269609774      -0.000000000007       0.000000000023
26     -44.257355766133     -38.179269609777      -0.000000000003       0.000000000009
27     -44.257355766134     -38.179269609778      -0.000000000001       0.000000000004

SCF Electronic Energy:     -44.257355766134 a.u.
SCF Nuclear Energy:          6.078086156356 a.u.
SCF Total Energy:          -38.179269609778 a.u.

 =>One Electron properties<= 


Properties will be evaluated at   0.000000,   0.000000,   0.000000 Bohr

Properties computed using the SCF density matrix

  Nuclear Dipole Moment: (a.u.)
     X:     0.0000      Y:     0.0000      Z:     1.0872

  Electronic Dipole Moment: (a.u.)
     X:     0.0000      Y:     0.0000      Z:    -1.2312

  Dipole Moment: (a.u.)
     X:     0.0000      Y:     0.0000      Z:    -0.1440     Total:     0.1440

  Dipole Moment: (Debye)
     X:     0.0000      Y:     0.0000      Z:    -0.3661     Total:     0.3661

  Mulliken Charges: (a.u.)
   Center  Symbol    Alpha    Beta     Spin     Total
       1     C     3.09344  3.09344  0.00000 -0.18688
       2     H     0.45328  0.45328  0.00000  0.09344
       3     H     0.45328  0.45328  0.00000  0.09344

   Total alpha =  4.00000, Total beta =  4.00000, Total charge =  0.00000


*** tstart() called on Jeffs-MacBook-Pro.local
*** at Tue Mar 24 15:43:27 2015

    There are an even number of electrons - assuming singlet.
    Specify the multiplicity with the MULTP option in the
    input if this is incorrect


         ---------------------------------------------------------
                                   SCF
            by Justin Turney, Rob Parrish, and Andy Simmonett
                              RHF Reference
                        1 Threads,    256 MiB Core
         ---------------------------------------------------------

  ==> Geometry <==

    Molecular point group: c2v
    Full point group: C2v

    Geometry (in Bohr), charge = 0, multiplicity = 1:

       Center              X                  Y                   Z       
    ------------   -----------------  -----------------  -----------------
           C          0.000000000000     0.000000000000    -0.184049817281
           H          1.638036840407     0.000000000000     1.095724821818
           H         -1.638036840407    -0.000000000000     1.095724821818

  Running in c2v symmetry.

  Rotational constants: A =     21.29826  B =     11.13094  C =      7.31038 [cm^-1]
  Rotational constants: A = 638505.72791  B = 333697.12661  C = 219159.53624 [MHz]
  Nuclear repulsion =    6.078086156356161

  Charge       = 0
  Multiplicity = 1
  Electrons    = 8
  Nalpha       = 4
  Nbeta        = 4

  ==> Algorithm <==

  SCF Algorithm Type is PK.
  DIIS enabled.
  MOM disabled.
  Fractional occupation disabled.
  Guess Type is CORE.
  Energy threshold   = 1.00e-06
  Density threshold  = 1.00e-06
  Integral threshold = 0.00e+00

  ==> Primary Basis <==

  Basis Set: STO-3G
    Number of shells: 5
    Number of basis function: 7
    Number of Cartesian functions: 7
    Spherical Harmonics?: true
    Max angular momentum: 1

  ==> Pre-Iterations <==

   -------------------------------------------------------
    Irrep   Nso     Nmo     Nalpha   Nbeta   Ndocc  Nsocc
   -------------------------------------------------------
     A1         4       4       0       0       0       0
     A2         0       0       0       0       0       0
     B1         2       2       0       0       0       0
     B2         1       1       0       0       0       0
   -------------------------------------------------------
    Total       7       7       4       4       4       0
   -------------------------------------------------------

  Starting with a DF guess...

 OEINTS: Overlap, kinetic, potential, dipole, and quadrupole integrals
         stored in file 35.

  ==> Integral Setup <==

  ==> DFJK: Density-Fitted J/K Matrices <==

    J tasked:                  Yes
    K tasked:                  Yes
    wK tasked:                  No
    OpenMP threads:              1
    Integrals threads:           1
    Memory (MB):               183
    Algorithm:                Core
    Integral Cache:           NONE
    Schwarz Cutoff:          1E-12
    Fitting Condition:       1E-12

   => Auxiliary Basis Set <=

  Basis Set: 
    Number of shells: 30
    Number of basis function: 84
    Number of Cartesian functions: 96
    Spherical Harmonics?: true
    Max angular momentum: 3

  Minimum eigenvalue in the overlap matrix is 2.7426090800E-01.
  Using Symmetric Orthogonalization.
  SCF Guess: Core (One-Electron) Hamiltonian.

  ==> Iterations <==

                           Total Energy        Delta E     RMS |[F,P]|

   @DF-RHF iter   1:   -36.66783772235746   -3.66678e+01   2.27428e-01 
   @DF-RHF iter   2:   -38.15576259172434   -1.48792e+00   2.92704e-02 DIIS
   @DF-RHF iter   3:   -38.17723667383675   -2.14741e-02   8.58063e-03 DIIS
   @DF-RHF iter   4:   -38.17952703208360   -2.29036e-03   1.55648e-03 DIIS
   @DF-RHF iter   5:   -38.17959768065506   -7.06486e-05   2.20737e-04 DIIS
   @DF-RHF iter   6:   -38.17959892662515   -1.24597e-06   9.76626e-06 DIIS
   @DF-RHF iter   7:   -38.17959892895270   -2.32755e-09   2.68993e-07 DIIS

  DF guess converged.

  ==> Integral Setup <==

 MINTS: Wrapper to libmints.
   by Justin Turney

   Calculation information:
      Number of atoms:                   3
      Number of AO shells:               5
      Number of SO shells:               4
      Number of primitives:             15
      Number of atomic orbitals:         7
      Number of basis functions:         7

      Number of irreps:                  4
      Integral cutoff                 0.00e+00
      Number of functions per irrep: [   4    0    2    1 ]

 OEINTS: Overlap, kinetic, potential, dipole, and quadrupole integrals
         stored in file 35.

      Computing two-electron integrals...done
      Computed 138 non-zero two-electron integrals.
        Stored in file 33.

	Batch   1 pq = [       0,      14] index = [             0,105]
  ==> DiskJK: Disk-Based J/K Matrices <==

    J tasked:                  Yes
    K tasked:                  Yes
    wK tasked:                  No
    Memory (MB):               183
    Schwarz Cutoff:          1E-12

   @RHF iter   8:   -38.17926960902395    3.29320e-04   1.89026e-05 DIIS
   @RHF iter   9:   -38.17926960977022   -7.46269e-10   9.68931e-07 DIIS

  ==> Post-Iterations <==

    Orbital Energies (a.u.)
    -----------------------

    Doubly Occupied:                                                      

       1A1   -10.912959     2A1    -0.764402     1B1    -0.467930  
       1B2    -0.213902  

    Virtual:                                                              

       3A1     0.128468     2B1     0.736767     4A1     0.788384  

    Final Occupation by Irrep:
             A1    A2    B1    B2 
    DOCC [     2,    0,    1,    1 ]

  Energy converged.

  @RHF Final Energy:   -38.17926960977022

   => Energetics <=

    Nuclear Repulsion Energy =              6.0780861563561608
    One-Electron Energy =                 -63.7963267069390625
    Two-Electron Energy =                  19.5389709408126784
    DFT Exchange-Correlation Energy =       0.0000000000000000
    Empirical Dispersion Energy =           0.0000000000000000
    Total Energy =                        -38.1792696097702304



Properties will be evaluated at   0.000000,   0.000000,   0.000000 Bohr
  ==> Properties <==


Properties computed using the SCF density matrix

  Nuclear Dipole Moment: (a.u.)
     X:     0.0000      Y:     0.0000      Z:     1.0872

  Electronic Dipole Moment: (a.u.)
     X:     0.0000      Y:     0.0000      Z:    -1.2312

  Dipole Moment: (a.u.)
     X:     0.0000      Y:     0.0000      Z:    -0.1440     Total:     0.1440

  Dipole Moment: (Debye)
     X:     0.0000      Y:     0.0000      Z:    -0.3661     Total:     0.3661


  Saving occupied orbitals to File 180.

*** tstop() called on Jeffs-MacBook-Pro.local at Tue Mar 24 15:43:27 2015
Module time:
	user time   =       0.22 seconds =       0.00 minutes
	system time =       0.00 seconds =       0.00 minutes
	total time  =          0 seconds =       0.00 minutes
Total time:
	user time   =       0.48 seconds =       0.01 minutes
	system time =       0.02 seconds =       0.00 minutes
	total time  =          0 seconds =       0.00 minutes

*** PSI4 exiting successfully. Buy a developer a beer!
